<?xml version="1.0"?> 
<VTKFile type="StructuredGrid" version="0.1"> 
<StructuredGrid WholeExtent="0 20 0 20 0 0"> 
<Piece Extent="0 20 0 20 0 0"> 
<PointData>
<DataArray type="Float32" Name="displacement" format="ascii" NumberOfComponents="3"> 
0 0 0 0 0 0 0 0 0 0 0 0 0 0 0 0 0 0 0 0 0 0 0 0 0 0 0 0 0 0 0 0 0 0 0 0 0 0 0 0 0 0 0 0 0 0 0 0 0 0 0 0 0 0 0 0 0 0 0 0 0 0 0 0 0 0 0.0954816 0.0954816 0 0.181686 0.181676 0 0.249884 0.249875 0 0.293905 0.293906 0 0.308989 0.308998 0 0.293805 0.293816 0 0.250021 0.250032 0 0.181529 0.181539 0 0.095517 0.095529 0 -1.25585e-05 5.28385e-07 0 -0.0955431 -0.0955321 0 -0.181556 -0.181553 0 -0.250045 -0.250049 0 -0.293811 -0.293815 0 -0.308974 -0.308975 0 -0.293888 -0.293895 0 -0.249878 -0.249898 0 -0.181673 -0.181692 0 -0.0954461 -0.0954461 0 0 0 0 0 0 0 0.181676 0.181686 0 0.345732 0.345732 0 0.47552 0.47552 0 0.559297 0.559305 0 0.58802 0.588027 0 0.559154 0.559149 0 0.475852 0.475836 0 0.345512 0.345493 0 0.181828 0.181809 0 3.36418e-05 1.60241e-05 0 -0.181766 -0.181784 0 -0.345464 -0.345485 0 -0.47582 -0.475839 0 -0.55913 -0.559138 0 -0.588004 -0.587999 0 -0.559306 -0.559301 0 -0.475563 -0.475567 0 -0.345779 -0.345779 0 -0.181692 -0.181673 0 0 0 0 0 0 0 0.249875 0.249884 0 0.47552 0.47552 0 0.654024 0.654024 0 0.769237 0.769244 0 0.808736 0.80874 0 0.769038 0.769029 0 0.654468 0.654448 0 0.475197 0.475176 0 0.250067 0.250047 0 3.33188e-05 1.48568e-05 0 -0.250005 -0.250023 0 -0.475147 -0.475166 0 -0.654433 -0.654448 0 -0.769015 -0.769019 0 -0.808725 -0.808717 0 -0.769249 -0.76924 0 -0.654063 -0.654063 0 -0.475567 -0.475563 0 -0.249898 -0.249878 0 0 0 0 0 0 0 0.293906 0.293905 0 0.559305 0.559297 0 0.769244 0.769237 0 0.904735 0.904735 0 0.951178 0.95118 0 0.904477 0.904476 0 0.769717 0.769715 0 0.558861 0.558862 0 0.29407 0.294075 0 -4.88561e-06 6.04754e-07 0 -0.29408 -0.294076 0 -0.558871 -0.558868 0 -0.769725 -0.769723 0 -0.904478 -0.904474 0 -0.951172 -0.951167 0 -0.904728 -0.904728 0 -0.76924 -0.769249 0 -0.559301 -0.559306 0 -0.293895 -0.293888 0 0 0 0 0 0 0 0.308998 0.308989 0 0.588027 0.58802 0 0.80874 0.808736 0 0.95118 0.951178 0 1 1 0 0.9509 0.950903 0 0.809221 0.809227 0 0.587537 0.587548 0 0.309151 0.309164 0 -2.08464e-05 -7.26279e-06 0 -0.309191 -0.309178 0 -0.587571 -0.587559 0 -0.809245 -0.809235 0 -0.950913 -0.950907 0 -1 -1 0 -0.951167 -0.951172 0 -0.808717 -0.808725 0 -0.587999 -0.588004 0 -0.308975 -0.308974 0 0 0 0 0 0 0 0.293816 0.293805 0 0.559149 0.559154 0 0.769029 0.769038 0 0.904476 0.904477 0 0.950903 0.9509 0 0.90422 0.90422 0 0.769502 0.769505 0 0.558705 0.558708 0 0.293987 0.293989 0 -5.1677e-06 -5.31127e-06 0 -0.293996 -0.293997 0 -0.558711 -0.558708 0 -0.769505 -0.769501 0 -0.904223 -0.904223 0 -0.950907 -0.950913 0 -0.904474 -0.904478 0 -0.769019 -0.769015 0 -0.559138 -0.55913 0 -0.293815 -0.293811 0 0 0 0 0 0 0 0.250032 0.250021 0 0.475836 0.475852 0 0.654448 0.654468 0 0.769715 0.769717 0 0.809227 0.809221 0 0.769505 0.769502 0 0.654864 0.654864 0 0.475476 0.475472 0 0.250198 0.25019 0 7.70222e-06 -3.96465e-06 0 -0.250182 -0.250193 0 -0.475458 -0.475463 0 -0.654849 -0.654849 0 -0.769501 -0.769505 0 -0.809235 -0.809245 0 -0.769723 -0.769725 0 -0.654448 -0.654433 0 -0.475839 -0.47582 0 -0.250049 -0.250045 0 0 0 0 0 0 0 0.181539 0.181529 0 0.345493 0.345512 0 0.475176 0.475197 0 0.558862 0.558861 0 0.587548 0.587537 0 0.558708 0.558705 0 0.475472 0.475476 0 0.345224 0.345224 0 0.181656 0.18165 0 1.34799e-06 -8.07038e-06 0 -0.181652 -0.181659 0 -0.345215 -0.345215 0 -0.475463 -0.475458 0 -0.558708 -0.558711 0 -0.587559 -0.587571 0 -0.558868 -0.558871 0 -0.475166 -0.475147 0 -0.345485 -0.345464 0 -0.181553 -0.181556 0 0 0 0 0 0 0 0.095529 0.095517 0 0.181809 0.181828 0 0.250047 0.250067 0 0.294075 0.29407 0 0.309164 0.309151 0 0.293989 0.293987 0 0.25019 0.250198 0 0.18165 0.181656 0 0.0955778 0.0955778 0 -1.04414e-05 -1.31201e-05 0 -0.0955955 -0.0955955 0 -0.181659 -0.181652 0 -0.250193 -0.250182 0 -0.293997 -0.293996 0 -0.309178 -0.309191 0 -0.294076 -0.29408 0 -0.250023 -0.250005 0 -0.181784 -0.181766 0 -0.0955321 -0.0955431 0 0 0 0 0 0 0 5.28385e-07 -1.25585e-05 0 1.60241e-05 3.36418e-05 0 1.48568e-05 3.33188e-05 0 6.04754e-07 -4.88561e-06 0 -7.26279e-06 -2.08464e-05 0 -5.31127e-06 -5.1677e-06 0 -3.96465e-06 7.70222e-06 0 -8.07038e-06 1.34799e-06 0 -1.31201e-05 -1.04414e-05 0 -1.50107e-05 -1.50107e-05 0 -1.31201e-05 -1.04414e-05 0 -8.07038e-06 1.34799e-06 0 -3.96465e-06 7.70222e-06 0 -5.31127e-06 -5.1677e-06 0 -7.26279e-06 -2.08464e-05 0 6.04754e-07 -4.88561e-06 0 1.48568e-05 3.33188e-05 0 1.60241e-05 3.36418e-05 0 5.28385e-07 -1.25585e-05 0 0 0 0 0 0 0 -0.0955321 -0.0955431 0 -0.181784 -0.181766 0 -0.250023 -0.250005 0 -0.294076 -0.29408 0 -0.309178 -0.309191 0 -0.293997 -0.293996 0 -0.250193 -0.250182 0 -0.181659 -0.181652 0 -0.0955955 -0.0955955 0 -1.04414e-05 -1.31201e-05 0 0.0955778 0.0955778 0 0.18165 0.181656 0 0.25019 0.250198 0 0.293989 0.293987 0 0.309164 0.309151 0 0.294075 0.29407 0 0.250047 0.250067 0 0.181809 0.181828 0 0.095529 0.095517 0 0 0 0 0 0 0 -0.181553 -0.181556 0 -0.345485 -0.345464 0 -0.475166 -0.475147 0 -0.558868 -0.558871 0 -0.587559 -0.587571 0 -0.558708 -0.558711 0 -0.475463 -0.475458 0 -0.345215 -0.345215 0 -0.181652 -0.181659 0 1.34799e-06 -8.07038e-06 0 0.181656 0.18165 0 0.345224 0.345224 0 0.475472 0.475476 0 0.558708 0.558705 0 0.587548 0.587537 0 0.558862 0.558861 0 0.475176 0.475197 0 0.345493 0.345512 0 0.181539 0.181529 0 0 0 0 0 0 0 -0.250049 -0.250045 0 -0.475839 -0.47582 0 -0.654448 -0.654433 0 -0.769723 -0.769725 0 -0.809235 -0.809245 0 -0.769501 -0.769505 0 -0.654849 -0.654849 0 -0.475458 -0.475463 0 -0.250182 -0.250193 0 7.70222e-06 -3.96465e-06 0 0.250198 0.25019 0 0.475476 0.475472 0 0.654864 0.654864 0 0.769505 0.769502 0 0.809227 0.809221 0 0.769715 0.769717 0 0.654448 0.654468 0 0.475836 0.475852 0 0.250032 0.250021 0 0 0 0 0 0 0 -0.293815 -0.293811 0 -0.559138 -0.55913 0 -0.769019 -0.769015 0 -0.904474 -0.904478 0 -0.950907 -0.950913 0 -0.904223 -0.904223 0 -0.769505 -0.769501 0 -0.558711 -0.558708 0 -0.293996 -0.293997 0 -5.1677e-06 -5.31127e-06 0 0.293987 0.293989 0 0.558705 0.558708 0 0.769502 0.769505 0 0.90422 0.90422 0 0.950903 0.9509 0 0.904476 0.904477 0 0.769029 0.769038 0 0.559149 0.559154 0 0.293816 0.293805 0 0 0 0 0 0 0 -0.308975 -0.308974 0 -0.587999 -0.588004 0 -0.808717 -0.808725 0 -0.951167 -0.951172 0 -1 -1 0 -0.950913 -0.950907 0 -0.809245 -0.809235 0 -0.587571 -0.587559 0 -0.309191 -0.309178 0 -2.08464e-05 -7.26279e-06 0 0.309151 0.309164 0 0.587537 0.587548 0 0.809221 0.809227 0 0.9509 0.950903 0 1 1 0 0.95118 0.951178 0 0.80874 0.808736 0 0.588027 0.58802 0 0.308998 0.308989 0 0 0 0 0 0 0 -0.293895 -0.293888 0 -0.559301 -0.559306 0 -0.76924 -0.769249 0 -0.904728 -0.904728 0 -0.951172 -0.951167 0 -0.904478 -0.904474 0 -0.769725 -0.769723 0 -0.558871 -0.558868 0 -0.29408 -0.294076 0 -4.88561e-06 6.04754e-07 0 0.29407 0.294075 0 0.558861 0.558862 0 0.769717 0.769715 0 0.904477 0.904476 0 0.951178 0.95118 0 0.904735 0.904735 0 0.769244 0.769237 0 0.559305 0.559297 0 0.293906 0.293905 0 0 0 0 0 0 0 -0.249898 -0.249878 0 -0.475567 -0.475563 0 -0.654063 -0.654063 0 -0.769249 -0.76924 0 -0.808725 -0.808717 0 -0.769015 -0.769019 0 -0.654433 -0.654448 0 -0.475147 -0.475166 0 -0.250005 -0.250023 0 3.33188e-05 1.48568e-05 0 0.250067 0.250047 0 0.475197 0.475176 0 0.654468 0.654448 0 0.769038 0.769029 0 0.808736 0.80874 0 0.769237 0.769244 0 0.654024 0.654024 0 0.47552 0.47552 0 0.249875 0.249884 0 0 0 0 0 0 0 -0.181692 -0.181673 0 -0.345779 -0.345779 0 -0.475563 -0.475567 0 -0.559306 -0.559301 0 -0.588004 -0.587999 0 -0.55913 -0.559138 0 -0.47582 -0.475839 0 -0.345464 -0.345485 0 -0.181766 -0.181784 0 3.36418e-05 1.60241e-05 0 0.181828 0.181809 0 0.345512 0.345493 0 0.475852 0.475836 0 0.559154 0.559149 0 0.58802 0.588027 0 0.559297 0.559305 0 0.47552 0.47552 0 0.345732 0.345732 0 0.181676 0.181686 0 0 0 0 0 0 0 -0.0954461 -0.0954461 0 -0.181673 -0.181692 0 -0.249878 -0.249898 0 -0.293888 -0.293895 0 -0.308974 -0.308975 0 -0.293811 -0.293815 0 -0.250045 -0.250049 0 -0.181556 -0.181553 0 -0.0955431 -0.0955321 0 -1.25585e-05 5.28385e-07 0 0.095517 0.095529 0 0.181529 0.181539 0 0.250021 0.250032 0 0.293805 0.293816 0 0.308989 0.308998 0 0.293905 0.293906 0 0.249884 0.249875 0 0.181686 0.181676 0 0.0954816 0.0954816 0 0 0 0 0 0 0 0 0 0 0 0 0 0 0 0 0 0 0 0 0 0 0 0 0 0 0 0 0 0 0 0 0 0 0 0 0 0 0 0 0 0 0 0 0 0 0 0 0 0 0 0 0 0 0 0 0 0 0 0 0 0 0 0 0 0 0 </DataArray> 
<DataArray type="Float32" Name="stress" format="ascii" NumberOfComponents="9"> 
0 0 0 0 0 0 0 0 0 1.12042 0.747048 0 0.747048 2.61432 0 0 0 0 2.13151 1.42124 0 1.42124 4.97351 0 0 0 0 2.93155 1.95459 0 1.95459 6.84029 0 0 0 0 3.44817 2.29883 0 2.29883 8.04573 0 0 0 0 3.62517 2.41664 0 2.41664 8.45874 0 0 0 0 3.44691 2.29765 0 2.29765 8.04279 0 0 0 0 2.93312 1.95503 0 1.95503 6.84396 0 0 0 0 2.12957 1.41928 0 1.41928 4.96899 0 0 0 0 1.12052 0.746549 0 0.746549 2.61454 0 0 0 0 -0.00021896 -0.000629337 0 -0.000629337 -0.000510907 0 0 0 0 -1.12101 -0.747778 0 -0.747778 -2.61569 0 0 0 0 -2.13018 -1.4204 0 -1.4204 -4.97042 0 0 0 0 -2.9337 -1.9559 0 -1.9559 -6.8453 0 0 0 0 -3.44705 -2.29803 0 -2.29803 -8.04311 0 0 0 0 -3.62479 -2.41645 0 -2.41645 -8.45783 0 0 0 0 -3.44784 -2.29833 0 -2.29833 -8.04495 0 0 0 0 -2.93168 -1.95403 0 -1.95403 -6.84059 0 0 0 0 -2.13137 -1.42048 0 -1.42048 -4.97319 0 0 0 0 -1.11935 -0.746061 0 -0.746061 -2.61182 0 0 0 0 0 0 0 0 0 0 0 0 0 2.61432 0.747048 0 0.747048 1.12042 0 0 0 0 3.55198 1.42065 0 1.42065 3.55198 0 0 0 0 4.14258 1.956 0 1.956 5.63789 0 0 0 0 4.32201 2.29739 0 2.29739 7.16484 0 0 0 0 4.09578 2.41998 0 2.41998 8.00395 0 0 0 0 3.44122 2.29713 0 2.29713 8.04434 0 0 0 0 2.47764 1.95736 0 1.95736 7.30882 0 0 0 0 1.24989 1.4205 0 1.4205 5.8519 0 0 0 0 -0.0868914 0.747357 0 0.747357 3.82279 0 0 0 0 -1.41765 0.00141114 0 0.00141114 1.42377 0 0 0 0 -2.61572 -0.747112 0 -0.747112 -1.12072 0 0 0 0 -3.55031 -1.4204 0 -1.4204 -3.55236 0 0 0 0 -4.13976 -1.95464 0 -1.95464 -5.63389 0 0 0 0 -4.3318 -2.30079 0 -2.30079 -7.17257 0 0 0 0 -4.08097 -2.41528 0 -2.41528 -7.99576 0 0 0 0 -3.45624 -2.30138 0 -2.30138 -8.0505 0 0 0 0 -2.46554 -1.95433 0 -1.95433 -7.30532 0 0 0 0 -1.25671 -1.42182 0 -1.42182 -5.85177 0 0 0 0 0.0872223 -0.747691 0 -0.747691 -3.82585 0 0 0 0 1.42091 -1.19562e-15 0 -1.19562e-15 -1.42091 0 0 0 0 2.61182 0.746061 0 0.746061 1.11935 0 0 0 0 4.97351 1.42124 0 1.42124 2.13151 0 0 0 0 5.63789 1.956 0 1.956 4.14258 0 0 0 0 5.74966 2.29973 0 2.29973 5.74966 0 0 0 0 5.28966 2.4151 0 2.4151 6.78588 0 0 0 0 4.34199 2.30356 0 2.30356 7.17572 0 0 0 0 2.91947 1.95166 0 1.95166 6.83897 0 0 0 0 1.26407 1.42388 0 1.42388 5.85529 0 0 0 0 -0.558496 0.744943 0 0.744943 4.28262 0 0 0 0 -2.29816 0.000227613 0 0.000227613 2.29839 0 0 0 0 -3.82021 -0.745734 0 -0.745734 0.0905628 0 0 0 0 -4.97795 -1.42203 0 -1.42203 -2.13317 0 0 0 0 -5.63443 -1.95514 0 -1.95514 -4.14209 0 0 0 0 -5.74588 -2.29814 0 -2.29814 -5.74542 0 0 0 0 -5.30676 -2.42044 0 -2.42044 -6.79599 0 0 0 0 -4.31521 -2.29547 0 -2.29547 -7.16275 0 0 0 0 -2.94807 -1.95984 0 -1.95984 -6.85124 0 0 0 0 -1.23963 -1.41734 0 -1.41734 -5.84629 0 0 0 0 0.544018 -0.74857 0 -0.74857 -4.28599 0 0 0 0 2.30016 3.41607e-16 0 3.41607e-16 -2.30016 0 0 0 0 3.82585 0.747691 0 0.747691 -0.0872223 0 0 0 0 4.97319 1.42048 0 1.42048 2.13137 0 0 0 0 6.84029 1.95459 0 1.95459 2.93155 0 0 0 0 7.16484 2.29739 0 2.29739 4.32201 0 0 0 0 6.78588 2.4151 0 2.4151 5.28966 0 0 0 0 5.73148 2.29269 0 2.29269 5.73148 0 0 0 0 4.15604 1.95786 0 1.95786 5.63289 0 0 0 0 2.10651 1.41167 0 1.41167 4.95213 0 0 0 0 -0.0765507 0.748096 0 0.748096 3.81773 0 0 0 0 -2.31305 -0.00563127 0 -0.00563127 2.28554 0 0 0 0 -4.28272 -0.747927 0 -0.747927 0.543656 0 0 0 0 -5.84467 -1.41968 0 -1.41968 -1.25311 0 0 0 0 -6.84674 -1.9564 0 -1.9564 -2.93456 0 0 0 0 -7.15947 -2.29614 0 -2.29614 -4.32052 0 0 0 0 -6.78134 -2.41353 0 -2.41353 -5.28567 0 0 0 0 -5.75419 -2.29951 0 -2.29951 -5.74307 0 0 0 0 -4.11996 -1.94722 0 -1.94722 -5.61638 0 0 0 0 -2.1458 -1.42292 0 -1.42292 -4.96913 0 0 0 0 0.110956 -0.738647 0 -0.738647 -3.80412 0 0 0 0 2.29226 -1.87884e-15 0 -1.87884e-15 -2.29226 0 0 0 0 4.28599 0.74857 0 0.74857 -0.544018 0 0 0 0 5.85177 1.42182 0 1.42182 1.25671 0 0 0 0 6.84059 1.95403 0 1.95403 2.93168 0 0 0 0 8.04573 2.29883 0 2.29883 3.44817 0 0 0 0 8.00395 2.41998 0 2.41998 4.09578 0 0 0 0 7.17572 2.30356 0 2.30356 4.34199 0 0 0 0 5.63289 1.95786 0 1.95786 4.15604 0 0 0 0 3.58471 1.43397 0 1.43397 3.58471 0 0 0 0 1.10741 0.747081 0 0.747081 2.628 0 0 0 0 -1.39285 0.0114897 0 0.0114897 1.45076 0 0 0 0 -3.82922 -0.745663 0 -0.745663 0.10152 0 0 0 0 -5.84213 -1.41628 0 -1.41628 -1.23863 0 0 0 0 -7.29776 -1.95212 0 -1.95212 -2.46207 0 0 0 0 -8.05269 -2.301 0 -2.301 -3.45146 0 0 0 0 -7.99687 -2.41821 0 -2.41821 -4.09331 0 0 0 0 -7.17069 -2.30203 0 -2.30203 -4.33863 0 0 0 0 -5.65893 -1.96551 0 -1.96551 -4.16803 0 0 0 0 -3.5428 -1.42183 0 -1.42183 -3.56623 0 0 0 0 -1.15364 -0.760314 0 -0.760314 -2.64806 0 0 0 0 1.43384 -4.27009e-16 0 -4.27009e-16 -1.43384 0 0 0 0 3.80412 0.738647 0 0.738647 -0.110956 0 0 0 0 5.84629 1.41734 0 1.41734 1.23963 0 0 0 0 7.30532 1.95433 0 1.95433 2.46554 0 0 0 0 8.04495 2.29833 0 2.29833 3.44784 0 0 0 0 8.45874 2.41664 0 2.41664 3.62517 0 0 0 0 8.04434 2.29713 0 2.29713 3.44122 0 0 0 0 6.83897 1.95166 0 1.95166 2.91947 0 0 0 0 4.95213 1.41167 0 1.41167 2.10651 0 0 0 0 2.628 0.747081 0 0.747081 1.10741 0 0 0 0 -0.0348581 -0.0139043 0 -0.0139043 -0.0348581 0 0 0 0 -2.60449 -0.747874 0 -0.747874 -1.13502 0 0 0 0 -4.99605 -1.4306 0 -1.4306 -2.15706 0 0 0 0 -6.84648 -1.95841 0 -1.95841 -2.94575 0 0 0 0 -8.04298 -2.29917 0 -2.29917 -3.45311 0 0 0 0 -8.4659 -2.41879 0 -2.41879 -3.62827 0 0 0 0 -8.03645 -2.29487 0 -2.29487 -3.43808 0 0 0 0 -6.83407 -1.95024 0 -1.95024 -2.91721 0 0 0 0 -4.97896 -1.41935 0 -1.41935 -2.11775 0 0 0 0 -2.58441 -0.734659 0 -0.734659 -1.08882 0 0 0 0 -0.0137436 1.253e-15 0 1.253e-15 0.0137436 0 0 0 0 2.64806 0.760314 0 0.760314 1.15364 0 0 0 0 4.96913 1.42292 0 1.42292 2.1458 0 0 0 0 6.85124 1.95984 0 1.95984 2.94807 0 0 0 0 8.0505 2.30138 0 2.30138 3.45624 0 0 0 0 8.45783 2.41645 0 2.41645 3.62479 0 0 0 0 8.04279 2.29765 0 2.29765 3.44691 0 0 0 0 7.30882 1.95736 0 1.95736 2.47764 0 0 0 0 5.85529 1.42388 0 1.42388 1.26407 0 0 0 0 3.81773 0.748096 0 0.748096 -0.0765507 0 0 0 0 1.45076 0.0114897 0 0.0114897 -1.39285 0 0 0 0 -1.13502 -0.747874 0 -0.747874 -2.60449 0 0 0 0 -3.52435 -1.40967 0 -1.40967 -3.52435 0 0 0 0 -5.64242 -1.95481 0 -1.95481 -4.1319 0 0 0 0 -7.15776 -2.29385 0 -2.29385 -4.31185 0 0 0 0 -7.98876 -2.41334 0 -2.41334 -4.07846 0 0 0 0 -8.05021 -2.29992 0 -2.29992 -3.45001 0 0 0 0 -7.30115 -1.95494 0 -1.95494 -2.47417 0 0 0 0 -5.85106 -1.42272 0 -1.42272 -1.26307 0 0 0 0 -3.84281 -0.75509 0 -0.75509 0.0671074 0 0 0 0 -1.40976 1.87884e-15 0 1.87884e-15 1.40976 0 0 0 0 1.08882 0.734659 0 0.734659 2.58441 0 0 0 0 3.56623 1.42183 0 1.42183 3.5428 0 0 0 0 5.61638 1.94722 0 1.94722 4.11996 0 0 0 0 7.16275 2.29547 0 2.29547 4.31521 0 0 0 0 7.99576 2.41528 0 2.41528 4.08097 0 0 0 0 8.04311 2.29803 0 2.29803 3.44705 0 0 0 0 6.84396 1.95503 0 1.95503 2.93312 0 0 0 0 5.8519 1.4205 0 1.4205 1.24989 0 0 0 0 4.28262 0.744943 0 0.744943 -0.558496 0 0 0 0 2.28554 -0.00563127 0 -0.00563127 -2.31305 0 0 0 0 0.10152 -0.745663 0 -0.745663 -3.82922 0 0 0 0 -2.15706 -1.4306 0 -1.4306 -4.99605 0 0 0 0 -4.1319 -1.95481 0 -1.95481 -5.64242 0 0 0 0 -5.76572 -2.30629 0 -2.30629 -5.76572 0 0 0 0 -6.79129 -2.41884 0 -2.41884 -5.30272 0 0 0 0 -7.16688 -2.29945 0 -2.29945 -4.33032 0 0 0 0 -6.85087 -1.95738 0 -1.95738 -2.93613 0 0 0 0 -5.84512 -1.41823 0 -1.41823 -1.24629 0 0 0 0 -4.27946 -0.744202 0 -0.744202 0.558193 0 0 0 0 -2.30638 -1.70804e-16 0 -1.70804e-16 2.30638 0 0 0 0 -0.0671074 0.75509 0 0.75509 3.84281 0 0 0 0 2.11775 1.41935 0 1.41935 4.97896 0 0 0 0 4.16803 1.96551 0 1.96551 5.65893 0 0 0 0 5.74307 2.29951 0 2.29951 5.75419 0 0 0 0 6.79599 2.42044 0 2.42044 5.30676 0 0 0 0 7.17257 2.30079 0 2.30079 4.3318 0 0 0 0 6.8453 1.9559 0 1.9559 2.9337 0 0 0 0 4.96899 1.41928 0 1.41928 2.12957 0 0 0 0 3.82279 0.747357 0 0.747357 -0.0868914 0 0 0 0 2.29839 0.000227613 0 0.000227613 -2.29816 0 0 0 0 0.543656 -0.747927 0 -0.747927 -4.28272 0 0 0 0 -1.23863 -1.41628 0 -1.41628 -5.84213 0 0 0 0 -2.94575 -1.95841 0 -1.95841 -6.84648 0 0 0 0 -4.31185 -2.29385 0 -2.29385 -7.15776 0 0 0 0 -5.30272 -2.41884 0 -2.41884 -6.79129 0 0 0 0 -5.74158 -2.29673 0 -2.29673 -5.74158 0 0 0 0 -5.63022 -1.95402 0 -1.95402 -4.13944 0 0 0 0 -4.97422 -1.42128 0 -1.42128 -2.13193 0 0 0 0 -3.81741 -0.745446 0 -0.745446 0.0902548 0 0 0 0 -2.29657 -3.41607e-15 0 -3.41607e-15 2.29657 0 0 0 0 -0.558193 0.744202 0 0.744202 4.27946 0 0 0 0 1.26307 1.42272 0 1.42272 5.85106 0 0 0 0 2.91721 1.95024 0 1.95024 6.83407 0 0 0 0 4.33863 2.30203 0 2.30203 7.17069 0 0 0 0 5.28567 2.41353 0 2.41353 6.78134 0 0 0 0 5.74542 2.29814 0 2.29814 5.74588 0 0 0 0 5.63389 1.95464 0 1.95464 4.13976 0 0 0 0 4.97042 1.4204 0 1.4204 2.13018 0 0 0 0 2.61454 0.746549 0 0.746549 1.12052 0 0 0 0 1.42377 0.00141114 0 0.00141114 -1.41765 0 0 0 0 0.0905628 -0.745734 0 -0.745734 -3.82021 0 0 0 0 -1.25311 -1.41968 0 -1.41968 -5.84467 0 0 0 0 -2.46207 -1.95212 0 -1.95212 -7.29776 0 0 0 0 -3.45311 -2.29917 0 -2.29917 -8.04298 0 0 0 0 -4.07846 -2.41334 0 -2.41334 -7.98876 0 0 0 0 -4.33032 -2.29945 0 -2.29945 -7.16688 0 0 0 0 -4.13944 -1.95402 0 -1.95402 -5.63022 0 0 0 0 -3.55105 -1.4205 0 -1.4205 -3.55105 0 0 0 0 -2.61745 -0.747902 0 -0.747902 -1.12185 0 0 0 0 -1.42032 -5.12411e-16 0 -5.12411e-16 1.42032 0 0 0 0 -0.0902548 0.745446 0 0.745446 3.81741 0 0 0 0 1.24629 1.41823 0 1.41823 5.84512 0 0 0 0 2.47417 1.95494 0 1.95494 7.30115 0 0 0 0 3.43808 2.29487 0 2.29487 8.03645 0 0 0 0 4.09331 2.41821 0 2.41821 7.99687 0 0 0 0 4.32052 2.29614 0 2.29614 7.15947 0 0 0 0 4.14209 1.95514 0 1.95514 5.63443 0 0 0 0 3.55236 1.4204 0 1.4204 3.55031 0 0 0 0 2.61569 0.747778 0 0.747778 1.12101 0 0 0 0 -0.000510907 -0.000629337 0 -0.000629337 -0.00021896 0 0 0 0 -1.12072 -0.747112 0 -0.747112 -2.61572 0 0 0 0 -2.13317 -1.42203 0 -1.42203 -4.97795 0 0 0 0 -2.93456 -1.9564 0 -1.9564 -6.84674 0 0 0 0 -3.45146 -2.301 0 -2.301 -8.05269 0 0 0 0 -3.62827 -2.41879 0 -2.41879 -8.4659 0 0 0 0 -3.45001 -2.29992 0 -2.29992 -8.05021 0 0 0 0 -2.93613 -1.95738 0 -1.95738 -6.85087 0 0 0 0 -2.13193 -1.42128 0 -1.42128 -4.97422 0 0 0 0 -1.12185 -0.747902 0 -0.747902 -2.61745 0 0 0 0 -2.25447e-15 -4.99067e-16 0 -4.99067e-16 -1.5846e-15 0 0 0 0 1.12185 0.747902 0 0.747902 2.61745 0 0 0 0 2.13193 1.42128 0 1.42128 4.97422 0 0 0 0 2.93613 1.95738 0 1.95738 6.85087 0 0 0 0 3.45001 2.29992 0 2.29992 8.05021 0 0 0 0 3.62827 2.41879 0 2.41879 8.4659 0 0 0 0 3.45146 2.301 0 2.301 8.05269 0 0 0 0 2.93456 1.9564 0 1.9564 6.84674 0 0 0 0 2.13317 1.42203 0 1.42203 4.97795 0 0 0 0 1.12072 0.747112 0 0.747112 2.61572 0 0 0 0 0.000510907 0.000629337 0 0.000629337 0.00021896 0 0 0 0 -2.61569 -0.747778 0 -0.747778 -1.12101 0 0 0 0 -3.55236 -1.4204 0 -1.4204 -3.55031 0 0 0 0 -4.14209 -1.95514 0 -1.95514 -5.63443 0 0 0 0 -4.32052 -2.29614 0 -2.29614 -7.15947 0 0 0 0 -4.09331 -2.41821 0 -2.41821 -7.99687 0 0 0 0 -3.43808 -2.29487 0 -2.29487 -8.03645 0 0 0 0 -2.47417 -1.95494 0 -1.95494 -7.30115 0 0 0 0 -1.24629 -1.41823 0 -1.41823 -5.84512 0 0 0 0 0.0902548 -0.745446 0 -0.745446 -3.81741 0 0 0 0 1.42032 -6.83214e-16 0 -6.83214e-16 -1.42032 0 0 0 0 2.61745 0.747902 0 0.747902 1.12185 0 0 0 0 3.55105 1.4205 0 1.4205 3.55105 0 0 0 0 4.13944 1.95402 0 1.95402 5.63022 0 0 0 0 4.33032 2.29945 0 2.29945 7.16688 0 0 0 0 4.07846 2.41334 0 2.41334 7.98876 0 0 0 0 3.45311 2.29917 0 2.29917 8.04298 0 0 0 0 2.46207 1.95212 0 1.95212 7.29776 0 0 0 0 1.25311 1.41968 0 1.41968 5.84467 0 0 0 0 -0.0905628 0.745734 0 0.745734 3.82021 0 0 0 0 -1.42377 -0.00141114 0 -0.00141114 1.41765 0 0 0 0 -2.61454 -0.746549 0 -0.746549 -1.12052 0 0 0 0 -4.97042 -1.4204 0 -1.4204 -2.13018 0 0 0 0 -5.63389 -1.95464 0 -1.95464 -4.13976 0 0 0 0 -5.74542 -2.29814 0 -2.29814 -5.74588 0 0 0 0 -5.28567 -2.41353 0 -2.41353 -6.78134 0 0 0 0 -4.33863 -2.30203 0 -2.30203 -7.17069 0 0 0 0 -2.91721 -1.95024 0 -1.95024 -6.83407 0 0 0 0 -1.26307 -1.42272 0 -1.42272 -5.85106 0 0 0 0 0.558193 -0.744202 0 -0.744202 -4.27946 0 0 0 0 2.29657 -2.39125e-15 0 -2.39125e-15 -2.29657 0 0 0 0 3.81741 0.745446 0 0.745446 -0.0902548 0 0 0 0 4.97422 1.42128 0 1.42128 2.13193 0 0 0 0 5.63022 1.95402 0 1.95402 4.13944 0 0 0 0 5.74158 2.29673 0 2.29673 5.74158 0 0 0 0 5.30272 2.41884 0 2.41884 6.79129 0 0 0 0 4.31185 2.29385 0 2.29385 7.15776 0 0 0 0 2.94575 1.95841 0 1.95841 6.84648 0 0 0 0 1.23863 1.41628 0 1.41628 5.84213 0 0 0 0 -0.543656 0.747927 0 0.747927 4.28272 0 0 0 0 -2.29839 -0.000227613 0 -0.000227613 2.29816 0 0 0 0 -3.82279 -0.747357 0 -0.747357 0.0868914 0 0 0 0 -4.96899 -1.41928 0 -1.41928 -2.12957 0 0 0 0 -6.8453 -1.9559 0 -1.9559 -2.9337 0 0 0 0 -7.17257 -2.30079 0 -2.30079 -4.3318 0 0 0 0 -6.79599 -2.42044 0 -2.42044 -5.30676 0 0 0 0 -5.74307 -2.29951 0 -2.29951 -5.75419 0 0 0 0 -4.16803 -1.96551 0 -1.96551 -5.65893 0 0 0 0 -2.11775 -1.41935 0 -1.41935 -4.97896 0 0 0 0 0.0671074 -0.75509 0 -0.75509 -3.84281 0 0 0 0 2.30638 -8.54018e-16 0 -8.54018e-16 -2.30638 0 0 0 0 4.27946 0.744202 0 0.744202 -0.558193 0 0 0 0 5.84512 1.41823 0 1.41823 1.24629 0 0 0 0 6.85087 1.95738 0 1.95738 2.93613 0 0 0 0 7.16688 2.29945 0 2.29945 4.33032 0 0 0 0 6.79129 2.41884 0 2.41884 5.30272 0 0 0 0 5.76572 2.30629 0 2.30629 5.76572 0 0 0 0 4.1319 1.95481 0 1.95481 5.64242 0 0 0 0 2.15706 1.4306 0 1.4306 4.99605 0 0 0 0 -0.10152 0.745663 0 0.745663 3.82922 0 0 0 0 -2.28554 0.00563127 0 0.00563127 2.31305 0 0 0 0 -4.28262 -0.744943 0 -0.744943 0.558496 0 0 0 0 -5.8519 -1.4205 0 -1.4205 -1.24989 0 0 0 0 -6.84396 -1.95503 0 -1.95503 -2.93312 0 0 0 0 -8.04311 -2.29803 0 -2.29803 -3.44705 0 0 0 0 -7.99576 -2.41528 0 -2.41528 -4.08097 0 0 0 0 -7.16275 -2.29547 0 -2.29547 -4.31521 0 0 0 0 -5.61638 -1.94722 0 -1.94722 -4.11996 0 0 0 0 -3.56623 -1.42183 0 -1.42183 -3.5428 0 0 0 0 -1.08882 -0.734659 0 -0.734659 -2.58441 0 0 0 0 1.40976 2.30585e-15 0 2.30585e-15 -1.40976 0 0 0 0 3.84281 0.75509 0 0.75509 -0.0671074 0 0 0 0 5.85106 1.42272 0 1.42272 1.26307 0 0 0 0 7.30115 1.95494 0 1.95494 2.47417 0 0 0 0 8.05021 2.29992 0 2.29992 3.45001 0 0 0 0 7.98876 2.41334 0 2.41334 4.07846 0 0 0 0 7.15776 2.29385 0 2.29385 4.31185 0 0 0 0 5.64242 1.95481 0 1.95481 4.1319 0 0 0 0 3.52435 1.40967 0 1.40967 3.52435 0 0 0 0 1.13502 0.747874 0 0.747874 2.60449 0 0 0 0 -1.45076 -0.0114897 0 -0.0114897 1.39285 0 0 0 0 -3.81773 -0.748096 0 -0.748096 0.0765507 0 0 0 0 -5.85529 -1.42388 0 -1.42388 -1.26407 0 0 0 0 -7.30882 -1.95736 0 -1.95736 -2.47764 0 0 0 0 -8.04279 -2.29765 0 -2.29765 -3.44691 0 0 0 0 -8.45783 -2.41645 0 -2.41645 -3.62479 0 0 0 0 -8.0505 -2.30138 0 -2.30138 -3.45624 0 0 0 0 -6.85124 -1.95984 0 -1.95984 -2.94807 0 0 0 0 -4.96913 -1.42292 0 -1.42292 -2.1458 0 0 0 0 -2.64806 -0.760314 0 -0.760314 -1.15364 0 0 0 0 0.0137436 8.78037e-16 0 8.78037e-16 -0.0137436 0 0 0 0 2.58441 0.734659 0 0.734659 1.08882 0 0 0 0 4.97896 1.41935 0 1.41935 2.11775 0 0 0 0 6.83407 1.95024 0 1.95024 2.91721 0 0 0 0 8.03645 2.29487 0 2.29487 3.43808 0 0 0 0 8.4659 2.41879 0 2.41879 3.62827 0 0 0 0 8.04298 2.29917 0 2.29917 3.45311 0 0 0 0 6.84648 1.95841 0 1.95841 2.94575 0 0 0 0 4.99605 1.4306 0 1.4306 2.15706 0 0 0 0 2.60449 0.747874 0 0.747874 1.13502 0 0 0 0 0.0348581 0.0139043 0 0.0139043 0.0348581 0 0 0 0 -2.628 -0.747081 0 -0.747081 -1.10741 0 0 0 0 -4.95213 -1.41167 0 -1.41167 -2.10651 0 0 0 0 -6.83897 -1.95166 0 -1.95166 -2.91947 0 0 0 0 -8.04434 -2.29713 0 -2.29713 -3.44122 0 0 0 0 -8.45874 -2.41664 0 -2.41664 -3.62517 0 0 0 0 -8.04495 -2.29833 0 -2.29833 -3.44784 0 0 0 0 -7.30532 -1.95433 0 -1.95433 -2.46554 0 0 0 0 -5.84629 -1.41734 0 -1.41734 -1.23963 0 0 0 0 -3.80412 -0.738647 0 -0.738647 0.110956 0 0 0 0 -1.43384 1.79344e-15 0 1.79344e-15 1.43384 0 0 0 0 1.15364 0.760314 0 0.760314 2.64806 0 0 0 0 3.5428 1.42183 0 1.42183 3.56623 0 0 0 0 5.65893 1.96551 0 1.96551 4.16803 0 0 0 0 7.17069 2.30203 0 2.30203 4.33863 0 0 0 0 7.99687 2.41821 0 2.41821 4.09331 0 0 0 0 8.05269 2.301 0 2.301 3.45146 0 0 0 0 7.29776 1.95212 0 1.95212 2.46207 0 0 0 0 5.84213 1.41628 0 1.41628 1.23863 0 0 0 0 3.82922 0.745663 0 0.745663 -0.10152 0 0 0 0 1.39285 -0.0114897 0 -0.0114897 -1.45076 0 0 0 0 -1.10741 -0.747081 0 -0.747081 -2.628 0 0 0 0 -3.58471 -1.43397 0 -1.43397 -3.58471 0 0 0 0 -5.63289 -1.95786 0 -1.95786 -4.15604 0 0 0 0 -7.17572 -2.30356 0 -2.30356 -4.34199 0 0 0 0 -8.00395 -2.41998 0 -2.41998 -4.09578 0 0 0 0 -8.04573 -2.29883 0 -2.29883 -3.44817 0 0 0 0 -6.84059 -1.95403 0 -1.95403 -2.93168 0 0 0 0 -5.85177 -1.42182 0 -1.42182 -1.25671 0 0 0 0 -4.28599 -0.74857 0 -0.74857 0.544018 0 0 0 0 -2.29226 1.36643e-15 0 1.36643e-15 2.29226 0 0 0 0 -0.110956 0.738647 0 0.738647 3.80412 0 0 0 0 2.1458 1.42292 0 1.42292 4.96913 0 0 0 0 4.11996 1.94722 0 1.94722 5.61638 0 0 0 0 5.75419 2.29951 0 2.29951 5.74307 0 0 0 0 6.78134 2.41353 0 2.41353 5.28567 0 0 0 0 7.15947 2.29614 0 2.29614 4.32052 0 0 0 0 6.84674 1.9564 0 1.9564 2.93456 0 0 0 0 5.84467 1.41968 0 1.41968 1.25311 0 0 0 0 4.28272 0.747927 0 0.747927 -0.543656 0 0 0 0 2.31305 0.00563127 0 0.00563127 -2.28554 0 0 0 0 0.0765507 -0.748096 0 -0.748096 -3.81773 0 0 0 0 -2.10651 -1.41167 0 -1.41167 -4.95213 0 0 0 0 -4.15604 -1.95786 0 -1.95786 -5.63289 0 0 0 0 -5.73148 -2.29269 0 -2.29269 -5.73148 0 0 0 0 -6.78588 -2.4151 0 -2.4151 -5.28966 0 0 0 0 -7.16484 -2.29739 0 -2.29739 -4.32201 0 0 0 0 -6.84029 -1.95459 0 -1.95459 -2.93155 0 0 0 0 -4.97319 -1.42048 0 -1.42048 -2.13137 0 0 0 0 -3.82585 -0.747691 0 -0.747691 0.0872223 0 0 0 0 -2.30016 1.87884e-15 0 1.87884e-15 2.30016 0 0 0 0 -0.544018 0.74857 0 0.74857 4.28599 0 0 0 0 1.23963 1.41734 0 1.41734 5.84629 0 0 0 0 2.94807 1.95984 0 1.95984 6.85124 0 0 0 0 4.31521 2.29547 0 2.29547 7.16275 0 0 0 0 5.30676 2.42044 0 2.42044 6.79599 0 0 0 0 5.74588 2.29814 0 2.29814 5.74542 0 0 0 0 5.63443 1.95514 0 1.95514 4.14209 0 0 0 0 4.97795 1.42203 0 1.42203 2.13317 0 0 0 0 3.82021 0.745734 0 0.745734 -0.0905628 0 0 0 0 2.29816 -0.000227613 0 -0.000227613 -2.29839 0 0 0 0 0.558496 -0.744943 0 -0.744943 -4.28262 0 0 0 0 -1.26407 -1.42388 0 -1.42388 -5.85529 0 0 0 0 -2.91947 -1.95166 0 -1.95166 -6.83897 0 0 0 0 -4.34199 -2.30356 0 -2.30356 -7.17572 0 0 0 0 -5.28966 -2.4151 0 -2.4151 -6.78588 0 0 0 0 -5.74966 -2.29973 0 -2.29973 -5.74966 0 0 0 0 -5.63789 -1.956 0 -1.956 -4.14258 0 0 0 0 -4.97351 -1.42124 0 -1.42124 -2.13151 0 0 0 0 -2.61182 -0.746061 0 -0.746061 -1.11935 0 0 0 0 -1.42091 5.12411e-16 0 5.12411e-16 1.42091 0 0 0 0 -0.0872223 0.747691 0 0.747691 3.82585 0 0 0 0 1.25671 1.42182 0 1.42182 5.85177 0 0 0 0 2.46554 1.95433 0 1.95433 7.30532 0 0 0 0 3.45624 2.30138 0 2.30138 8.0505 0 0 0 0 4.08097 2.41528 0 2.41528 7.99576 0 0 0 0 4.3318 2.30079 0 2.30079 7.17257 0 0 0 0 4.13976 1.95464 0 1.95464 5.63389 0 0 0 0 3.55031 1.4204 0 1.4204 3.55236 0 0 0 0 2.61572 0.747112 0 0.747112 1.12072 0 0 0 0 1.41765 -0.00141114 0 -0.00141114 -1.42377 0 0 0 0 0.0868914 -0.747357 0 -0.747357 -3.82279 0 0 0 0 -1.24989 -1.4205 0 -1.4205 -5.8519 0 0 0 0 -2.47764 -1.95736 0 -1.95736 -7.30882 0 0 0 0 -3.44122 -2.29713 0 -2.29713 -8.04434 0 0 0 0 -4.09578 -2.41998 0 -2.41998 -8.00395 0 0 0 0 -4.32201 -2.29739 0 -2.29739 -7.16484 0 0 0 0 -4.14258 -1.956 0 -1.956 -5.63789 0 0 0 0 -3.55198 -1.42065 0 -1.42065 -3.55198 0 0 0 0 -2.61432 -0.747048 0 -0.747048 -1.12042 0 0 0 0 0 0 0 0 0 0 0 0 0 1.11935 0.746061 0 0.746061 2.61182 0 0 0 0 2.13137 1.42048 0 1.42048 4.97319 0 0 0 0 2.93168 1.95403 0 1.95403 6.84059 0 0 0 0 3.44784 2.29833 0 2.29833 8.04495 0 0 0 0 3.62479 2.41645 0 2.41645 8.45783 0 0 0 0 3.44705 2.29803 0 2.29803 8.04311 0 0 0 0 2.9337 1.9559 0 1.9559 6.8453 0 0 0 0 2.13018 1.4204 0 1.4204 4.97042 0 0 0 0 1.12101 0.747778 0 0.747778 2.61569 0 0 0 0 0.00021896 0.000629337 0 0.000629337 0.000510907 0 0 0 0 -1.12052 -0.746549 0 -0.746549 -2.61454 0 0 0 0 -2.12957 -1.41928 0 -1.41928 -4.96899 0 0 0 0 -2.93312 -1.95503 0 -1.95503 -6.84396 0 0 0 0 -3.44691 -2.29765 0 -2.29765 -8.04279 0 0 0 0 -3.62517 -2.41664 0 -2.41664 -8.45874 0 0 0 0 -3.44817 -2.29883 0 -2.29883 -8.04573 0 0 0 0 -2.93155 -1.95459 0 -1.95459 -6.84029 0 0 0 0 -2.13151 -1.42124 0 -1.42124 -4.97351 0 0 0 0 -1.12042 -0.747048 0 -0.747048 -2.61432 0 0 0 0 0 0 0 0 0 0 0 0 0 </DataArray> 
</PointData> 
<Points> 
<DataArray type="Float32" NumberOfComponents="3"> 