<?xml version="1.0"?> 
<VTKFile type="StructuredGrid" version="0.1"> 
<StructuredGrid WholeExtent="0 20 0 20 0 0"> 
<Piece Extent="0 20 0 20 0 0"> 
<PointData>
<DataArray type="Float32" Name="displacement" format="ascii" NumberOfComponents="3"> 
-0.000263982 0 0 -0.000263148 -5.53513e-06 0 -0.000260659 -1.11896e-05 0 -0.000256416 -1.69025e-05 0 -0.000250404 -2.25194e-05 0 -0.000242582 -2.79611e-05 0 -0.000232931 -3.32393e-05 0 -0.000221466 -3.83697e-05 0 -0.000208265 -4.32782e-05 0 -0.000193566 -4.78091e-05 0 -0.000177522 -5.18933e-05 0 -0.000163324 -5.72516e-05 0 -0.000147679 -6.23076e-05 0 -0.000130795 -6.69883e-05 0 -0.000113022 -7.11005e-05 0 -9.45934e-05 -7.45974e-05 0 -7.57059e-05 -7.74359e-05 0 -5.65535e-05 -7.95882e-05 0 -3.73567e-05 -8.10637e-05 0 -1.84489e-05 -8.1826e-05 0 0 -8.19105e-05 0 -0.000266971 0 0 -0.000266052 -4.50494e-06 0 -0.000263056 -9.16604e-06 0 -0.000257896 -1.39639e-05 0 -0.000250753 -1.89282e-05 0 -0.000241619 -2.40339e-05 0 -0.000230703 -2.92944e-05 0 -0.000218257 -3.4721e-05 0 -0.000204404 -4.02515e-05 0 -0.000189566 -4.57417e-05 0 -0.000173927 -5.1122e-05 0 -0.000159131 -5.7196e-05 0 -0.000143222 -6.32001e-05 0 -0.000126381 -6.90362e-05 0 -0.000108876 -7.4405e-05 0 -9.09042e-05 -7.92311e-05 0 -7.26368e-05 -8.33184e-05 0 -5.42383e-05 -8.6496e-05 0 -3.58832e-05 -8.87553e-05 0 -1.77571e-05 -8.99453e-05 0 0 -9.0101e-05 0 -0.000270489 0 0 -0.000269515 -3.67636e-06 0 -0.000266101 -7.55782e-06 0 -0.00026018 -1.16603e-05 0 -0.000252115 -1.61712e-05 0 -0.000241935 -2.11094e-05 0 -0.000230043 -2.64836e-05 0 -0.000216899 -3.2295e-05 0 -0.000202657 -3.84878e-05 0 -0.000187883 -4.49107e-05 0 -0.000172783 -5.1491e-05 0 -0.000157253 -5.80549e-05 0 -0.000140887 -6.47578e-05 0 -0.00012385 -7.14837e-05 0 -0.000106348 -7.78535e-05 0 -8.85547e-05 -8.37697e-05 0 -7.06196e-05 -8.89034e-05 0 -5.26862e-05 -9.29576e-05 0 -3.48903e-05 -9.59042e-05 0 -1.72904e-05 -9.74779e-05 0 0 -9.77083e-05 0 -0.000274534 0 0 -0.000273533 -3.04853e-06 0 -0.000269791 -6.36154e-06 0 -0.000263258 -9.98441e-06 0 -0.000254475 -1.42356e-05 0 -0.000243505 -1.91693e-05 0 -0.00023092 -2.47834e-05 0 -0.00021735 -3.10643e-05 0 -0.000202973 -3.79567e-05 0 -0.000188461 -4.52854e-05 0 -0.000174029 -5.29715e-05 0 -0.00015763 -5.98056e-05 0 -0.000140623 -6.69645e-05 0 -0.00012316 -7.43219e-05 0 -0.000105407 -8.14429e-05 0 -8.75208e-05 -8.8215e-05 0 -6.96382e-05 -9.41956e-05 0 -5.18881e-05 -9.89785e-05 0 -3.43741e-05 -0.000102515 0 -1.7048e-05 -0.000104426 0 0 -0.000104733 0 -0.000279108 0 0 -0.000278106 -2.62059e-06 0 -0.000274119 -5.57379e-06 0 -0.00026712 -8.92858e-06 0 -0.000257818 -1.31088e-05 0 -0.000246309 -1.81958e-05 0 -0.000233302 -2.41713e-05 0 -0.000219569 -3.10019e-05 0 -0.000205305 -3.8629e-05 0 -0.000191244 -4.68361e-05 0 -0.000177605 -5.55361e-05 0 -0.000160209 -6.24261e-05 0 -0.000142381 -6.9805e-05 0 -0.000124268 -7.75421e-05 0 -0.000106019 -8.51705e-05 0 -8.77785e-05 -9.25687e-05 0 -6.96769e-05 -9.91994e-05 0 -5.18351e-05 -0.000104564 0 -3.43305e-05 -0.000108592 0 -1.70288e-05 -0.000110793 0 0 -0.000111174 0 -0.00028421 0 0 -0.000283231 -2.39169e-06 0 -0.000279079 -5.1912e-06 0 -0.000271758 -8.48548e-06 0 -0.000262129 -1.27788e-05 0 -0.000250322 -1.81716e-05 0 -0.000237158 -2.46249e-05 0 -0.000223519 -3.20821e-05 0 -0.000209604 -4.04763e-05 0 -0.000196177 -4.95341e-05 0 -0.000183455 -5.91578e-05 0 -0.000164935 -6.58951e-05 0 -0.000146114 -7.32643e-05 0 -0.000127135 -8.11357e-05 0 -0.000108153 -8.90333e-05 0 -8.93048e-05 -9.68323e-05 0 -7.07203e-05 -0.000103919 0 -5.25182e-05 -0.000109719 0 -3.47558e-05 -0.000114139 0 -1.72319e-05 -0.000116581 0 0 -0.000117032 0 -0.000289841 0 0 -0.000288905 -2.36099e-06 0 -0.000284668 -5.21046e-06 0 -0.000277161 -8.64788e-06 0 -0.000267394 -1.32334e-05 0 -0.000255524 -1.90798e-05 0 -0.000242458 -2.61229e-05 0 -0.000229159 -3.42796e-05 0 -0.000215824 -4.34711e-05 0 -0.00020321 -5.33518e-05 0 -0.000191521 -6.38109e-05 0 -0.000171756 -7.01922e-05 0 -0.000151775 -7.73279e-05 0 -0.000131723 -8.50945e-05 0 -0.000111778 -9.30287e-05 0 -9.2077e-05 -0.000101008 0 -7.27532e-05 -0.000108359 0 -5.39288e-05 -0.000114448 0 -3.5646e-05 -0.000119162 0 -1.76564e-05 -0.000121791 0 0 -0.000122307 0 -0.000296 0 0 -0.000295125 -2.52764e-06 0 -0.000290879 -5.62827e-06 0 -0.000283321 -9.40864e-06 0 -0.000273598 -1.4461e-05 0 -0.000261894 -2.09037e-05 0 -0.000249174 -2.86442e-05 0 -0.000236454 -3.757e-05 0 -0.000223921 -4.75867e-05 0 -0.000212291 -5.82621e-05 0 -0.00020175 -6.94703e-05 0 -0.000180622 -7.52975e-05 0 -0.000159319 -8.19818e-05 0 -0.000137993 -8.94106e-05 0 -0.000116864 -9.7154e-05 0 -9.6073e-05 -0.000105096 0 -7.57608e-05 -0.000112523 0 -5.60582e-05 -0.000118757 0 -3.69974e-05 -0.000123664 0 -1.83012e-05 -0.000126428 0 0 -0.000126999 0 -0.000302687 0 0 -0.000301891 -2.8908e-06 0 -0.000297708 -6.44138e-06 0 -0.00029023 -1.07608e-05 0 -0.000280727 -1.64501e-05 0 -0.000269411 -2.36273e-05 0 -0.000257277 -3.21686e-05 0 -0.000245368 -4.19295e-05 0 -0.000233852 -5.27975e-05 0 -0.000223371 -6.42391e-05 0 -0.000214091 -7.61118e-05 0 -0.000191484 -8.11918e-05 0 -0.000168704 -8.72123e-05 0 -0.00014591 -9.40762e-05 0 -0.000123383 -0.000101407 0 -0.000101271 -0.000109099 0 -7.97287e-05 -0.000116416 0 -5.88982e-05 -0.000122651 0 -3.88061e-05 -0.000127649 0 -1.91656e-05 -0.000130492 0 0 -0.000131108 0 -0.000309902 0 0 -0.000309198 -3.44964e-06 0 -0.00030515 -7.64656e-06 0 -0.000297877 -1.26973e-05 0 -0.000288768 -1.91892e-05 0 -0.000278055 -2.72348e-05 0 -0.00026674 -3.6676e-05 0 -0.000255865 -4.7335e-05 0 -0.000245574 -5.90782e-05 0 -0.000236404 -7.12575e-05 0 -0.000228492 -8.37119e-05 0 -0.000204295 -8.78563e-05 0 -0.000179887 -9.30063e-05 0 -0.000155437 -9.90837e-05 0 -0.000131305 -0.000105784 0 -0.00010765 -0.000113019 0 -8.46425e-05 -0.000120042 0 -6.24403e-05 -0.000126134 0 -4.10685e-05 -0.000131122 0 -2.02485e-05 -0.000133988 0 0 -0.000134634 0 -0.000317645 0 0 -0.000317046 -4.20333e-06 0 -0.000313199 -9.24063e-06 0 -0.000306256 -1.52115e-05 0 -0.000297706 -2.26675e-05 0 -0.000287806 -3.17107e-05 0 -0.000277536 -4.21473e-05 0 -0.000267912 -5.37642e-05 0 -0.000259047 -6.64048e-05 0 -0.000251344 -7.92929e-05 0 -0.000244906 -9.22479e-05 0 -0.000219009 -9.5273e-05 0 -0.000192827 -9.93511e-05 0 -0.00016654 -0.000104426 0 -0.000140604 -0.000110284 0 -0.00011519 -0.000116856 0 -9.04883e-05 -0.000123403 0 -6.66764e-05 -0.000129212 0 -4.37809e-05 -0.000134087 0 -2.1549e-05 -0.000136916 0 0 -0.000137577 0 -0.00032585 0 0 -0.000325346 -5.05686e-06 0 -0.000321721 -1.1025e-05 0 -0.000315152 -1.79949e-05 0 -0.000307221 -2.64718e-05 0 -0.000298199 -3.65456e-05 0 -0.000289031 -4.79817e-05 0 -0.000280688 -6.05273e-05 0 -0.00027325 -7.40071e-05 0 -0.000266948 -8.754e-05 0 -0.000261847 -0.00010093 0 -0.000234289 -0.000102905 0 -0.000206354 -0.000105928 0 -0.000178234 -0.000109968 0 -0.00015047 -0.00011493 0 -0.000123244 -0.00012077 0 -9.67721e-05 -0.000126769 0 -7.12576e-05 -0.000132228 0 -4.67304e-05 -0.000136937 0 -2.2971e-05 -0.000139696 0 0 -0.000140362 0 -0.000334448 0 0 -0.00033401 -5.91575e-06 0 -0.00033058 -1.28034e-05 0 -0.000324358 -2.07439e-05 0 -0.000316995 -3.01972e-05 0 -0.000308778 -4.12418e-05 0 -0.000300605 -5.35943e-05 0 -0.000293397 -6.69542e-05 0 -0.000287193 -8.11383e-05 0 -0.000282012 -9.52181e-05 0 -0.000277878 -0.000108993 0 -0.000248839 -0.000110231 0 -0.000219335 -0.000112426 0 -0.000189561 -0.000115579 0 -0.000160115 -0.000119747 0 -0.00013118 -0.000124917 0 -0.000103009 -0.0001304 0 -7.58406e-05 -0.000135522 0 -4.97064e-05 -0.000140061 0 -2.44189e-05 -0.000142746 0 0 -0.000143415 0 -0.00034344 0 0 -0.000343038 -6.77998e-06 0 -0.000339774 -1.45757e-05 0 -0.000333869 -2.3459e-05 0 -0.000327026 -3.38449e-05 0 -0.00031954 -4.58017e-05 0 -0.000312257 -5.89891e-05 0 -0.00030604 -7.3052e-05 0 -0.00030088 -8.78088e-05 0 -0.000296548 -0.00010234 0 -0.00029302 -0.000116452 0 -0.000262675 -0.000117259 0 -0.000231782 -0.000118849 0 -0.000200531 -0.000121257 0 -0.000169543 -0.000124732 0 -0.000139001 -0.000129293 0 -0.0001092 -0.000134292 0 -8.04253e-05 -0.000139091 0 -5.27086e-05 -0.000143456 0 -2.58926e-05 -0.000146064 0 0 -0.000146735 0 -0.000352825 0 0 -0.000352427 -7.64952e-06 0 -0.0003493 -1.63421e-05 0 -0.000343681 -2.61404e-05 0 -0.000337308 -3.7416e-05 0 -0.000330481 -5.02275e-05 0 -0.000323985 -6.41705e-05 0 -0.000318618 -7.88274e-05 0 -0.000314317 -9.40286e-05 0 -0.000310568 -0.000108919 0 -0.000307294 -0.00012332 0 -0.000275813 -0.000123995 0 -0.000243705 -0.000125198 0 -0.000211149 -0.000127002 0 -0.000178759 -0.000129881 0 -0.000146708 -0.000133895 0 -0.000115346 -0.000138443 0 -8.50116e-05 -0.000142931 0 -5.57369e-05 -0.000147121 0 -2.7392e-05 -0.00014965 0 0 -0.000150323 0 -0.000362605 0 0 -0.000362177 -8.52435e-06 0 -0.000359155 -1.81025e-05 0 -0.000353793 -2.87885e-05 0 -0.00034784 -4.09116e-05 0 -0.0003416 -5.45215e-05 0 -0.000335789 -6.91425e-05 0 -0.000331133 -8.42871e-05 0 -0.000327511 -9.98078e-05 0 -0.000324084 -0.000114967 0 -0.00032072 -0.00012961 0 -0.00028827 -0.000130447 0 -0.000255118 -0.000131474 0 -0.000221423 -0.000132812 0 -0.000187766 -0.00013519 0 -0.000154303 -0.000138717 0 -0.000121447 -0.000142847 0 -8.95996e-05 -0.00014704 0 -5.87911e-05 -0.000151053 0 -2.8917e-05 -0.000153501 0 0 -0.000154179 0 -0.000372777 0 0 -0.000372285 -9.40445e-06 0 -0.000369338 -1.9857e-05 0 -0.000364199 -3.14038e-05 0 -0.000358617 -4.43328e-05 0 -0.000352892 -5.8686e-05 0 -0.000347666 -7.3909e-05 0 -0.000343586 -8.94377e-05 0 -0.000340466 -0.000105156 0 -0.000337107 -0.000120495 0 -0.000333315 -0.000135337 0 -0.00030006 -0.000136619 0 -0.000266029 -0.000137679 0 -0.000231361 -0.000138685 0 -0.000196568 -0.000140658 0 -0.000161789 -0.000143758 0 -0.000127504 -0.000147503 0 -9.41892e-05 -0.000151414 0 -6.18709e-05 -0.000155251 0 -3.04675e-05 -0.000157618 0 0 -0.000158303 0 -0.000383344 0 0 -0.00038275 -1.02898e-05 0 -0.000379845 -2.16058e-05 0 -0.000374897 -3.39867e-05 0 -0.000369635 -4.76806e-05 0 -0.000364355 -6.27231e-05 0 -0.000359616 -7.8474e-05 0 -0.000355979 -9.42853e-05 0 -0.000353187 -0.000110082 0 -0.000349649 -0.000125516 0 -0.000345101 -0.000140512 0 -0.000311199 -0.000142519 0 -0.000276452 -0.000143814 0 -0.000240969 -0.00014462 0 -0.00020517 -0.000146281 0 -0.000169166 -0.000149012 0 -0.000133518 -0.000152405 0 -9.87805e-05 -0.00015605 0 -6.49761e-05 -0.000159711 0 -3.20434e-05 -0.000161998 0 0 -0.000162694 0 -0.000394304 0 0 -0.00039357 -1.11804e-05 0 -0.000390674 -2.33487e-05 0 -0.000385883 -3.65374e-05 0 -0.000380892 -5.09561e-05 0 -0.000375987 -6.66349e-05 0 -0.000371637 -8.28411e-05 0 -0.000368311 -9.88362e-05 0 -0.00036568 -0.000114595 0 -0.000361719 -0.00013004 0 -0.000356093 -0.000145147 0 -0.0003217 -0.000148152 0 -0.000286395 -0.000149881 0 -0.000250253 -0.000150616 0 -0.000213575 -0.000152055 0 -0.000176437 -0.000154477 0 -0.000139489 -0.00015755 0 -0.000103373 -0.000160946 0 -6.81066e-05 -0.000164432 0 -3.36445e-05 -0.000166641 0 0 -0.000167353 0 -0.000405658 0 0 -0.000404745 -1.20762e-05 0 -0.000401822 -2.50859e-05 0 -0.000397155 -3.90563e-05 0 -0.000392383 -5.41602e-05 0 -0.000387783 -7.04236e-05 0 -0.000383727 -8.7014e-05 0 -0.000380586 -0.000103096 0 -0.000377949 -0.000118704 0 -0.000373328 -0.000134079 0 -0.00036631 -0.000149256 0 -0.000331578 -0.000153525 0 -0.000295869 -0.000155881 0 -0.000259221 -0.000156672 0 -0.000221786 -0.000157979 0 -0.000183604 -0.000160148 0 -0.000145418 -0.000162935 0 -0.000107968 -0.000166098 0 -7.12621e-05 -0.000169412 0 -3.52708e-05 -0.000171545 0 0 -0.000172279 0 -0.000417405 0 0 -0.000416272 -1.29771e-05 0 -0.000413286 -2.68174e-05 0 -0.000408708 -4.15439e-05 0 -0.000404106 -5.72941e-05 0 -0.000399743 -7.40911e-05 0 -0.000395885 -9.09964e-05 0 -0.000392803 -0.000107072 0 -0.000389999 -0.000122418 0 -0.000384486 -0.000137643 0 -0.000375769 -0.000152849 0 -0.000340846 -0.000158643 0 -0.000304884 -0.000161817 0 -0.000267879 -0.000162787 0 -0.000229808 -0.00016405 0 -0.000190668 -0.000166023 0 -0.000151305 -0.000168557 0 -0.000112564 -0.000171504 0 -7.44424e-05 -0.000174649 0 -3.69222e-05 -0.00017671 0 0 -0.000177473 0 </DataArray> 
<DataArray type="Float32" Name="stress" format="ascii" NumberOfComponents="9"> 
-2.01126 0.0255281 0 0.0255281 -9.35096 0 0 0 0 -1.79015 0.215154 0 0.215154 -9.12863 0 0 0 0 -1.21039 0.4728 0 0.4728 -8.51845 0 0 0 0 -0.236944 0.808602 0 0.808602 -7.45029 0 0 0 0 1.20077 1.26372 0 1.26372 -5.98408 0 0 0 0 2.99798 1.83954 0 1.83954 -4.34588 0 0 0 0 5.09292 2.44649 0 2.44649 -2.80658 0 0 0 0 7.57817 3.06009 0 3.06009 -1.18285 0 0 0 0 10.2414 3.63241 0 3.63241 0.468578 0 0 0 0 12.9937 4.13233 0 4.13233 2.07748 0 0 0 0 11.2288 2.95087 0 2.95087 0.0458655 0 0 0 0 13.798 3.46158 0 3.46158 1.40919 0 0 0 0 16.5624 3.85836 0 3.85836 2.73546 0 0 0 0 19.3591 4.10996 0 4.10996 4.00236 0 0 0 0 22.0623 4.18794 0 4.18794 5.13796 0 0 0 0 24.6377 4.04901 0 4.04901 6.01276 0 0 0 0 27.0381 3.69278 0 3.69278 6.70805 0 0 0 0 29.1058 3.06787 0 3.06787 7.19461 0 0 0 0 30.5294 2.20835 0 2.20835 7.39566 0 0 0 0 31.2242 1.20567 0 1.20567 7.37321 0 0 0 0 31.3431 0.12877 0 0.12877 7.21884 0 0 0 0 -0.00442567 0.00896508 0 0.00896508 -5.57138 0 0 0 0 0.156287 0.372197 0 0.372197 -5.53311 0 0 0 0 0.685823 0.777215 0 0.777215 -5.19094 0 0 0 0 1.48945 1.15899 0 1.15899 -4.65237 0 0 0 0 2.60003 1.54403 0 1.54403 -3.94767 0 0 0 0 4.05406 2.00381 0 2.00381 -3.06206 0 0 0 0 5.5068 2.32807 0 2.32807 -2.29114 0 0 0 0 7.29354 2.66045 0 2.66045 -1.40799 0 0 0 0 9.14643 2.928 0 2.928 -0.496826 0 0 0 0 10.9852 3.11211 0 3.11211 0.385232 0 0 0 0 11.0098 2.59574 0 2.59574 -0.224149 0 0 0 0 12.6952 2.82545 0 2.82545 0.568821 0 0 0 0 14.4756 2.95109 0 2.95109 1.3186 0 0 0 0 16.288 2.98451 0 2.98451 2.08941 0 0 0 0 18.0429 2.9116 0 2.9116 2.82321 0 0 0 0 19.6576 2.6748 0 2.6748 3.3459 0 0 0 0 21.2031 2.39067 0 2.39067 3.91212 0 0 0 0 22.4775 1.92405 0 1.92405 4.28974 0 0 0 0 23.3952 1.34743 0 1.34743 4.50182 0 0 0 0 23.9149 0.723463 0 0.723463 4.58298 0 0 0 0 24.0353 0.0512775 0 0.0512775 4.51412 0 0 0 0 1.40693 0.00333878 0 0.00333878 -3.18126 0 0 0 0 1.53545 0.474181 0 0.474181 -3.25229 0 0 0 0 2.04492 0.971323 0 0.971323 -3.06678 0 0 0 0 2.75981 1.38219 0 1.38219 -2.84185 0 0 0 0 3.68127 1.72069 0 1.72069 -2.59906 0 0 0 0 4.92966 2.10052 0 2.10052 -2.18255 0 0 0 0 5.98205 2.23775 0 2.23775 -1.89482 0 0 0 0 7.30689 2.37598 0 2.37598 -1.49714 0 0 0 0 8.61306 2.43181 0 2.43181 -1.07677 0 0 0 0 9.82036 2.39454 0 2.39454 -0.682602 0 0 0 0 10.8746 2.26422 0 2.26422 -0.448987 0 0 0 0 11.9496 2.30202 0 2.30202 -0.0302569 0 0 0 0 13.0713 2.25228 0 2.25228 0.360525 0 0 0 0 14.2376 2.15189 0 2.15189 0.836035 0 0 0 0 15.3821 1.99393 0 1.99393 1.34209 0 0 0 0 16.3998 1.71381 0 1.71381 1.68249 0 0 0 0 17.424 1.49611 0 1.49611 2.20678 0 0 0 0 18.2259 1.15193 0 1.15193 2.55227 0 0 0 0 18.8506 0.77598 0 0.77598 2.80058 0 0 0 0 19.2731 0.41003 0 0.41003 2.96336 0 0 0 0 19.3937 0.00898235 0 0.00898235 2.95202 0 0 0 0 2.4677 0.00340818 0 0.00340818 -1.60917 0 0 0 0 2.5794 0.542951 0 0.542951 -1.74839 0 0 0 0 3.08392 1.09909 0 1.09909 -1.65999 0 0 0 0 3.75489 1.52807 0 1.52807 -1.62788 0 0 0 0 4.56744 1.83321 0 1.83321 -1.67332 0 0 0 0 5.69271 2.15451 0 2.15451 -1.55686 0 0 0 0 6.49702 2.16487 0 2.16487 -1.57544 0 0 0 0 7.51554 2.16618 0 2.16618 -1.49828 0 0 0 0 8.45515 2.07397 0 2.07397 -1.40033 0 0 0 0 9.23069 1.88241 0 1.88241 -1.32609 0 0 0 0 10.7956 1.94739 0 1.94739 -0.645477 0 0 0 0 11.4453 1.85372 0 1.85372 -0.467572 0 0 0 0 12.1206 1.69103 0 1.69103 -0.293629 0 0 0 0 12.8523 1.50907 0 1.50907 0.0116203 0 0 0 0 13.5883 1.30416 0 1.30416 0.392343 0 0 0 0 14.2186 1.01017 0 1.01017 0.645934 0 0 0 0 14.9057 0.850607 0 0.850607 1.17006 0 0 0 0 15.4082 0.603197 0 0.603197 1.51894 0 0 0 0 15.8484 0.376163 0 0.376163 1.80959 0 0 0 0 16.2067 0.195509 0 0.195509 2.03517 0 0 0 0 16.3218 -0.0134111 0 -0.0134111 2.06262 0 0 0 0 3.30468 0.00645964 0 0.00645964 -0.559261 0 0 0 0 3.40865 0.589848 0 0.589848 -0.742107 0 0 0 0 3.91655 1.18357 0 1.18357 -0.715845 0 0 0 0 4.57078 1.62314 0 1.62314 -0.802638 0 0 0 0 5.32512 1.90303 0 1.90303 -1.02692 0 0 0 0 6.38079 2.17952 0 2.17952 -1.1016 0 0 0 0 7.03943 2.10338 0 2.10338 -1.30908 0 0 0 0 7.85973 2.00749 0 2.00749 -1.4393 0 0 0 0 8.56168 1.81277 0 1.81277 -1.5445 0 0 0 0 9.0522 1.51631 0 1.51631 -1.66751 0 0 0 0 10.7551 1.63965 0 1.63965 -0.824136 0 0 0 0 11.1115 1.45759 0 1.45759 -0.791727 0 0 0 0 11.487 1.22501 0 1.22501 -0.736264 0 0 0 0 11.9251 0.996086 0 0.996086 -0.518034 0 0 0 0 12.3824 0.768059 0 0.768059 -0.197576 0 0 0 0 12.7563 0.477554 0 0.477554 0.0276321 0 0 0 0 13.2176 0.368301 0 0.368301 0.57337 0 0 0 0 13.5228 0.199021 0 0.199021 0.943469 0 0 0 0 13.8397 0.0862092 0 0.0862092 1.27608 0 0 0 0 14.1488 0.0436162 0 0.0436162 1.54955 0 0 0 0 14.2518 -0.0238222 0 -0.0238222 1.60264 0 0 0 0 3.9901 0.0109474 0 0.0109474 0.137018 0 0 0 0 4.09202 0.621352 0 0.621352 -0.0739983 0 0 0 0 4.60816 1.23799 0 1.23799 -0.0879907 0 0 0 0 5.26329 1.68279 0 1.68279 -0.245447 0 0 0 0 5.99354 1.94273 0 1.94273 -0.575332 0 0 0 0 7.01645 2.18378 0 2.18378 -0.766872 0 0 0 0 7.60179 2.04961 0 2.04961 -1.08116 0 0 0 0 8.30233 1.88527 0 1.88527 -1.33757 0 0 0 0 8.86228 1.62182 0 1.62182 -1.55807 0 0 0 0 9.17899 1.25788 0 1.25788 -1.78579 0 0 0 0 10.7418 1.33733 0 1.33733 -0.991876 0 0 0 0 10.9026 1.09881 0 1.09881 -1.0341 0 0 0 0 11.084 0.827415 0 0.827415 -1.02593 0 0 0 0 11.3275 0.575687 0 0.575687 -0.83633 0 0 0 0 11.5944 0.340396 0 0.340396 -0.532251 0 0 0 0 11.7988 0.0642593 0 0.0642593 -0.297313 0 0 0 0 12.106 -0.00138186 0 -0.00138186 0.282069 0 0 0 0 12.2787 -0.106388 0 -0.106388 0.682805 0 0 0 0 12.509 -0.129377 0 -0.129377 1.05479 0 0 0 0 12.7756 -0.0663641 0 -0.0663641 1.36442 0 0 0 0 12.8604 -0.0267622 0 -0.0267622 1.43346 0 0 0 0 4.56813 0.0159261 0 0.0159261 0.582715 0 0 0 0 4.67164 0.641427 0 0.641427 0.353607 0 0 0 0 5.199 1.2705 0 1.2705 0.313677 0 0 0 0 5.86707 1.71659 0 1.71659 0.118586 0 0 0 0 6.5973 1.96025 0 1.96025 -0.265531 0 0 0 0 7.61397 2.17253 0 2.17253 -0.52096 0 0 0 0 8.17927 2.00118 0 2.00118 -0.882276 0 0 0 0 8.81903 1.78995 0 1.78995 -1.20442 0 0 0 0 9.31023 1.48356 0 1.48356 -1.47347 0 0 0 0 9.53963 1.08126 0 1.08126 -1.73418 0 0 0 0 10.7479 1.03793 0 1.03793 -1.15343 0 0 0 0 10.7877 0.767374 0 0.767374 -1.21585 0 0 0 0 10.8541 0.480433 0 0.480433 -1.20151 0 0 0 0 10.9753 0.223488 0 0.223488 -0.997833 0 0 0 0 11.1147 -0.0079932 0 -0.0079932 -0.679077 0 0 0 0 11.2102 -0.262548 0 -0.262548 -0.408241 0 0 0 0 11.4116 -0.290156 0 -0.290156 0.211721 0 0 0 0 11.4952 -0.341443 0 -0.341443 0.648188 0 0 0 0 11.6621 -0.292444 0 -0.292444 1.05628 0 0 0 0 11.8889 -0.14712 0 -0.14712 1.39277 0 0 0 0 11.9498 -0.0249895 0 -0.0249895 1.47036 0 0 0 0 5.06729 0.0207855 0 0.0207855 0.844386 0 0 0 0 5.17478 0.65264 0 0.65264 0.60387 0 0 0 0 5.71518 1.28641 0 1.28641 0.547656 0 0 0 0 6.40474 1.73078 0 1.73078 0.338396 0 0 0 0 7.1526 1.96079 0 1.96079 -0.0625803 0 0 0 0 8.18289 2.14924 0 2.14924 -0.342755 0 0 0 0 8.76862 1.95649 0 1.95649 -0.706091 0 0 0 0 9.39326 1.71498 0 1.71498 -1.0476 0 0 0 0 9.87327 1.38587 0 1.38587 -1.31306 0 0 0 0 10.0842 0.968362 0 0.968362 -1.54988 0 0 0 0 10.7678 0.739661 0 0.739661 -1.31213 0 0 0 0 10.7452 0.456304 0 0.456304 -1.35178 0 0 0 0 10.7578 0.171771 0 0.171771 -1.28987 0 0 0 0 10.8111 -0.0771285 0 -0.0771285 -1.03974 0 0 0 0 10.8694 -0.296744 0 -0.296744 -0.683443 0 0 0 0 10.8998 -0.524729 0 -0.524729 -0.357976 0 0 0 0 11.0298 -0.518923 0 -0.518923 0.306679 0 0 0 0 11.0541 -0.524711 0 -0.524711 0.781618 0 0 0 0 11.173 -0.417178 0 -0.417178 1.22252 0 0 0 0 11.3603 -0.206856 0 -0.206856 1.57831 0 0 0 0 11.3922 -0.0202858 0 -0.0202858 1.65858 0 0 0 0 5.50683 0.0251136 0 0.0251136 0.966937 0 0 0 0 5.61983 0.656723 0 0.656723 0.719448 0 0 0 0 6.17441 1.28929 0 1.28929 0.653582 0 0 0 0 6.89172 1.7296 0 1.7296 0.447312 0 0 0 0 7.67057 1.94792 0 1.94792 0.0574788 0 0 0 0 8.72978 2.11633 0 2.11633 -0.217658 0 0 0 0 9.36758 1.91441 0 1.91441 -0.548188 0 0 0 0 10.0134 1.65578 0 1.65578 -0.872553 0 0 0 0 10.5284 1.32013 0 1.32013 -1.09279 0 0 0 0 10.7768 0.906166 0 0.906166 -1.2597 0 0 0 0 10.7976 0.441239 0 0.441239 -1.47043 0 0 0 0 10.7598 0.160566 0 0.160566 -1.45252 0 0 0 0 10.7666 -0.107335 0 -0.107335 -1.31012 0 0 0 0 10.7945 -0.337883 0 -0.337883 -0.988286 0 0 0 0 10.807 -0.539565 0 -0.539565 -0.577031 0 0 0 0 10.805 -0.737402 0 -0.737402 -0.183043 0 0 0 0 10.8885 -0.702015 0 -0.702015 0.528784 0 0 0 0 10.8751 -0.668836 0 -0.668836 1.0436 0 0 0 0 10.9563 -0.513192 0 -0.513192 1.51415 0 0 0 0 11.1032 -0.251115 0 -0.251115 1.88303 0 0 0 0 11.1017 -0.0138528 0 -0.0138528 1.96121 0 0 0 0 5.9002 0.0286225 0 0.0286225 0.981759 0 0 0 0 6.01969 0.654889 0 0.654889 0.730191 0 0 0 0 6.58909 1.28166 0 1.28166 0.659262 0 0 0 0 7.33886 1.71605 0 1.71605 0.468814 0 0 0 0 8.15907 1.92418 0 1.92418 0.111626 0 0 0 0 9.25936 2.07551 0 2.07551 -0.135251 0 0 0 0 9.97451 1.87416 0 1.87416 -0.40539 0 0 0 0 10.6708 1.60899 0 1.60899 -0.683248 0 0 0 0 11.2588 1.28001 0 1.28001 -0.824334 0 0 0 0 11.5909 0.885063 0 0.885063 -0.88341 0 0 0 0 10.8341 0.1417 0 0.1417 -1.63012 0 0 0 0 10.8199 -0.123555 0 -0.123555 -1.52595 0 0 0 0 10.8599 -0.363296 0 -0.363296 -1.27629 0 0 0 0 10.8962 -0.567278 0 -0.567278 -0.862495 0 0 0 0 10.8904 -0.746316 0 -0.746316 -0.382633 0 0 0 0 10.8812 -0.911356 0 -0.911356 0.0904887 0 0 0 0 10.9368 -0.849592 0 -0.849592 0.850993 0 0 0 0 10.9015 -0.782726 0 -0.782726 1.40629 0 0 0 0 10.952 -0.587227 0 -0.587227 1.90358 0 0 0 0 11.0572 -0.283775 0 -0.283775 2.28034 0 0 0 0 11.0178 -0.00653102 0 -0.00653102 2.35243 0 0 0 0 6.25709 0.0311049 0 0.0311049 0.911462 0 0 0 0 6.38363 0.648011 0 0.648011 0.657612 0 0 0 0 6.96819 1.26533 0 1.26533 0.584784 0 0 0 0 7.75404 1.69231 0 1.69231 0.419927 0 0 0 0 8.62386 1.89141 0 1.89141 0.112229 0 0 0 0 9.77506 2.02804 0 2.02804 -0.0879003 0 0 0 0 10.5882 1.83513 0 1.83513 -0.27535 0 0 0 0 11.3594 1.57213 0 1.57213 -0.482621 0 0 0 0 12.0519 1.26079 0 1.26079 -0.516422 0 0 0 0 12.5064 0.8978 0 0.8978 -0.435937 0 0 0 0 10.8752 -0.159687 0 -0.159687 -1.79259 0 0 0 0 10.9168 -0.39886 0 -0.39886 -1.578 0 0 0 0 11.0223 -0.600912 0 -0.600912 -1.19884 0 0 0 0 11.0943 -0.771629 0 -0.771629 -0.67651 0 0 0 0 11.0923 -0.924269 0 -0.924269 -0.117059 0 0 0 0 11.0957 -1.0545 0 -1.0545 0.44352 0 0 0 0 11.1377 -0.96905 0 -0.96905 1.25361 0 0 0 0 11.0922 -0.872841 0 -0.872841 1.84952 0 0 0 0 11.1169 -0.644155 0 -0.644155 2.37089 0 0 0 0 11.1784 -0.30763 0 -0.30763 2.75107 0 0 0 0 11.0973 0.0010745 0 0.0010745 2.81365 0 0 0 0 6.4846 0.0302217 0 0.0302217 0.769412 0 0 0 0 6.58226 0.591303 0 0.591303 0.491666 0 0 0 0 7.1027 1.14879 0 1.14879 0.381992 0 0 0 0 7.80254 1.51794 0 1.51794 0.195559 0 0 0 0 8.55491 1.66498 0 1.66498 -0.122314 0 0 0 0 9.5463 1.75283 0 1.75283 -0.348171 0 0 0 0 10.227 1.54467 0 1.54467 -0.526964 0 0 0 0 10.8398 1.26773 0 1.26773 -0.73487 0 0 0 0 11.4048 0.968059 0 0.968059 -0.737617 0 0 0 0 11.7465 0.656476 0 0.656476 -0.60532 0 0 0 0 11.0999 0.0768959 0 0.0768959 -1.02924 0 0 0 0 11.1306 -0.148927 0 -0.148927 -0.985001 0 0 0 0 11.2405 -0.346975 0 -0.346975 -0.737829 0 0 0 0 11.2961 -0.53758 0 -0.53758 -0.34511 0 0 0 0 11.2485 -0.72432 0 -0.72432 0.0709323 0 0 0 0 11.2154 -0.883452 0 -0.883452 0.517398 0 0 0 0 11.1946 -0.843231 0 -0.843231 1.20388 0 0 0 0 11.0997 -0.789115 0 -0.789115 1.71083 0 0 0 0 11.0694 -0.59907 0 -0.59907 2.17087 0 0 0 0 11.0672 -0.294852 0 -0.294852 2.5062 0 0 0 0 10.935 -0.0101291 0 -0.0101291 2.54798 0 0 0 0 6.72461 0.0299175 0 0.0299175 0.656549 0 0 0 0 6.79964 0.542284 0 0.542284 0.363765 0 0 0 0 7.26647 1.04745 0 1.04745 0.227631 0 0 0 0 7.89474 1.36743 0 1.36743 0.0285021 0 0 0 0 8.5487 1.47166 0 1.47166 -0.291891 0 0 0 0 9.40329 1.51917 0 1.51917 -0.534569 0 0 0 0 9.97743 1.30324 0 1.30324 -0.690287 0 0 0 0 10.4586 1.01906 0 1.01906 -0.884614 0 0 0 0 10.9199 0.734263 0 0.734263 -0.859529 0 0 0 0 11.1702 0.47266 0 0.47266 -0.694411 0 0 0 0 11.1986 0.24716 0 0.24716 -0.472957 0 0 0 0 11.223 0.0394816 0 0.0394816 -0.567321 0 0 0 0 11.3422 -0.148014 0 -0.148014 -0.420305 0 0 0 0 11.3956 -0.349968 0 -0.349968 -0.127196 0 0 0 0 11.3264 -0.561267 0 -0.561267 0.174184 0 0 0 0 11.2815 -0.739658 0 -0.739658 0.533902 0 0 0 0 11.2142 -0.736675 0 -0.736675 1.11751 0 0 0 0 11.0852 -0.716719 0 -0.716719 1.55286 0 0 0 0 11.0162 -0.558916 0 -0.558916 1.96488 0 0 0 0 10.9673 -0.282599 0 -0.282599 2.26559 0 0 0 0 10.7992 -0.0184688 0 -0.0184688 2.29371 0 0 0 0 6.97497 0.0298585 0 0.0298585 0.567809 0 0 0 0 7.03252 0.499411 0 0.499411 0.267308 0 0 0 0 7.45449 0.958516 0 0.958516 0.113356 0 0 0 0 8.02323 1.23655 0 1.23655 -0.0910081 0 0 0 0 8.59471 1.30571 0 1.30571 -0.40741 0 0 0 0 9.33187 1.32004 0 1.32004 -0.659304 0 0 0 0 9.82137 1.10272 0 1.10272 -0.779675 0 0 0 0 10.1936 0.817044 0 0.817044 -0.948253 0 0 0 0 10.5714 0.54998 0 0.54998 -0.897809 0 0 0 0 10.7486 0.33729 0 0.33729 -0.715794 0 0 0 0 11.1908 0.361462 0 0.361462 -0.0915243 0 0 0 0 11.2128 0.176068 0 0.176068 -0.297524 0 0 0 0 11.3457 0.00476791 0 0.00476791 -0.223572 0 0 0 0 11.409 -0.201232 0 -0.201232 -0.00456895 0 0 0 0 11.3389 -0.42898 0 -0.42898 0.20649 0 0 0 0 11.3031 -0.618478 0 -0.618478 0.502514 0 0 0 0 11.2029 -0.646014 0 -0.646014 1.00062 0 0 0 0 11.0525 -0.653588 0 -0.653588 1.37889 0 0 0 0 10.9582 -0.522702 0 -0.522702 1.75398 0 0 0 0 10.8767 -0.27063 0 -0.27063 2.02853 0 0 0 0 10.6854 -0.0242826 0 -0.0242826 2.04884 0 0 0 0 7.23396 0.0297835 0 0.0297835 0.499237 0 0 0 0 7.27836 0.461479 0 0.461479 0.197135 0 0 0 0 7.66282 0.879778 0 0.879778 0.0326347 0 0 0 0 8.18216 1.12195 0 1.12195 -0.170629 0 0 0 0 8.68467 1.16262 0 1.16262 -0.477452 0 0 0 0 9.32081 1.14987 0 1.14987 -0.732006 0 0 0 0 9.74437 0.93666 0 0.93666 -0.806498 0 0 0 0 10.0272 0.654486 0 0.654486 -0.938835 0 0 0 0 10.3388 0.407679 0 0.407679 -0.864966 0 0 0 0 10.4585 0.243091 0 0.243091 -0.679574 0 0 0 0 11.0923 0.428154 0 0.428154 0.141021 0 0 0 0 11.1152 0.268624 0 0.268624 -0.15358 0 0 0 0 11.2657 0.118402 0 0.118402 -0.129494 0 0 0 0 11.3495 -0.0853565 0 -0.0853565 0.0372495 0 0 0 0 11.2961 -0.322603 0 -0.322603 0.17878 0 0 0 0 11.287 -0.516258 0 -0.516258 0.430714 0 0 0 0 11.1657 -0.568601 0 -0.568601 0.858069 0 0 0 0 11.0047 -0.598103 0 -0.598103 1.1915 0 0 0 0 10.8963 -0.489655 0 -0.489655 1.53898 0 0 0 0 10.794 -0.258757 0 -0.258757 1.79445 0 0 0 0 10.59 -0.0278346 0 -0.0278346 1.81185 0 0 0 0 7.50026 0.0294857 0 0.0294857 0.447697 0 0 0 0 7.53514 0.427533 0 0.427533 0.149154 0 0 0 0 7.88832 0.809498 0 0.809498 -0.0197184 0 0 0 0 8.36693 1.02101 0 1.02101 -0.216451 0 0 0 0 8.81198 1.03881 0 1.03881 -0.508855 0 0 0 0 9.36119 1.00423 0 1.00423 -0.760381 0 0 0 0 9.73486 0.799893 0 0.799893 -0.779881 0 0 0 0 9.94496 0.525572 0 0.525572 -0.86687 0 0 0 0 10.2055 0.301272 0 0.301272 -0.771117 0 0 0 0 10.2813 0.184154 0 0.184154 -0.593954 0 0 0 0 10.916 0.454046 0 0.454046 0.245853 0 0 0 0 10.9427 0.323477 0 0.323477 -0.117599 0 0 0 0 11.1141 0.198575 0 0.198575 -0.123403 0 0 0 0 11.2275 0.00250387 0 0.00250387 0.00992275 0 0 0 0 11.206 -0.238238 0 -0.238238 0.0998241 0 0 0 0 11.2389 -0.430071 0 -0.430071 0.324487 0 0 0 0 11.1063 -0.502326 0 -0.502326 0.693704 0 0 0 0 10.9441 -0.548976 0 -0.548976 0.992746 0 0 0 0 10.8311 -0.459159 0 -0.459159 1.32052 0 0 0 0 10.718 -0.246829 0 -0.246829 1.56291 0 0 0 0 10.51 -0.029334 0 -0.029334 1.5815 0 0 0 0 7.77278 0.0287989 0 0.0287989 0.410671 0 0 0 0 7.80126 0.396805 0 0.396805 0.120077 0 0 0 0 8.1285 0.746272 0 0.746272 -0.0478723 0 0 0 0 8.57379 0.931577 0 0.931577 -0.233378 0 0 0 0 8.97132 0.93136 0 0.93136 -0.50714 0 0 0 0 9.44575 0.879522 0 0.879522 -0.75066 0 0 0 0 9.78343 0.688224 0 0.688224 -0.707232 0 0 0 0 9.93538 0.425572 0 0.425572 -0.740917 0 0 0 0 10.1578 0.22578 0 0.22578 -0.62453 0 0 0 0 10.2015 0.15563 0 0.15563 -0.465668 0 0 0 0 10.6725 0.444746 0 0.444746 0.240409 0 0 0 0 10.7054 0.345817 0 0.345817 -0.174903 0 0 0 0 10.9006 0.249934 0 0.249934 -0.193309 0 0 0 0 11.0517 0.0662959 0 0.0662959 -0.0770492 0 0 0 0 11.0751 -0.172724 0 -0.172724 -0.0232602 0 0 0 0 11.1632 -0.357551 0 -0.357551 0.188673 0 0 0 0 11.0282 -0.445485 0 -0.445485 0.510638 0 0 0 0 10.8726 -0.505171 0 -0.505171 0.784274 0 0 0 0 10.7632 -0.430719 0 -0.430719 1.09913 0 0 0 0 10.6478 -0.234728 0 -0.234728 1.33355 0 0 0 0 10.4433 -0.028949 0 -0.028949 1.35682 0 0 0 0 8.05064 0.0275882 0 0.0275882 0.386115 0 0 0 0 8.07539 0.368671 0 0.368671 0.107234 0 0 0 0 8.38131 0.688961 0 0.688961 -0.055217 0 0 0 0 8.79971 0.85193 0 0.85193 -0.225403 0 0 0 0 9.15833 0.83792 0 0.83792 -0.476813 0 0 0 0 9.56856 0.772811 0 0.772811 -0.707943 0 0 0 0 9.88238 0.598209 0 0.598209 -0.594625 0 0 0 0 9.98889 0.350593 0 0.350593 -0.568021 0 0 0 0 10.1846 0.177094 0 0.177094 -0.432034 0 0 0 0 10.2062 0.153506 0 0.153506 -0.30029 0 0 0 0 10.3706 0.404915 0 0.404915 0.139177 0 0 0 0 10.4116 0.339944 0 0.339944 -0.313334 0 0 0 0 10.6332 0.276317 0 0.276317 -0.329313 0 0 0 0 10.8289 0.109267 0 0.109267 -0.21585 0 0 0 0 10.909 -0.123464 0 -0.123464 -0.184634 0 0 0 0 11.0638 -0.296764 0 -0.296764 0.0272318 0 0 0 0 10.9338 -0.396688 0 -0.396688 0.311411 0 0 0 0 10.7918 -0.465842 0 -0.465842 0.567429 0 0 0 0 10.693 -0.403934 0 -0.403934 0.875237 0 0 0 0 10.5826 -0.222355 0 -0.222355 1.10609 0 0 0 0 10.3879 -0.0268159 0 -0.0268159 1.137 0 0 0 0 8.33312 0.025743 0 0.025743 0.37235 0 0 0 0 8.35646 0.34262 0 0.34262 0.108434 0 0 0 0 8.64506 0.636627 0 0.636627 -0.044537 0 0 0 0 9.0422 0.780637 0 0.780637 -0.195812 0 0 0 0 9.36944 0.756535 0 0.756535 -0.421583 0 0 0 0 9.72474 0.681669 0 0.681669 -0.636441 0 0 0 0 10.0253 0.527 0 0.527 -0.447092 0 0 0 0 10.0976 0.297403 0 0.297403 -0.354029 0 0 0 0 10.2766 0.151791 0 0.151791 -0.199312 0 0 0 0 10.2848 0.174426 0 0.174426 -0.102478 0 0 0 0 10.0176 0.338458 0 0.338458 -0.0457007 0 0 0 0 10.0684 0.309449 0 0.309449 -0.522736 0 0 0 0 10.3185 0.280919 0 0.280919 -0.523172 0 0 0 0 10.5652 0.134113 0 0.134113 -0.39999 0 0 0 0 10.712 -0.0883128 0 -0.0883128 -0.379462 0 0 0 0 10.9436 -0.246111 0 -0.246111 -0.156565 0 0 0 0 10.8252 -0.35479 0 -0.35479 0.0981151 0 0 0 0 10.7028 -0.430295 0 -0.430295 0.343319 0 0 0 0 10.6209 -0.378474 0 -0.378474 0.649185 0 0 0 0 10.5217 -0.20963 0 -0.20963 